/*--------------------------------*- C++ -*----------------------------------*\
| =========                 |                                                 |
| \\      /  F ield         | OpenFOAM: The Open Source CFD Toolbox           |
|  \\    /   O peration     | Version:  v3.0+                                 |
|   \\  /    A nd           | Web:      www.OpenFOAM.com                      |
|    \\/     M anipulation  |                                                 |
\*---------------------------------------------------------------------------*/
FoamFile
{
    version     2.0;
    format      ascii;
    class       volScalarField;
    location    "0";
    object      H;
}
// * * * * * * * * * * * * * * * * * * * * * * * * * * * * * * * * * * * * * //

dimensions      [0 0 0 0 0 0 0];

internalField   nonuniform List<scalar> 
100000
(
1.00019792
1.00150784
1.00273093
1.00329061
0.99590959
0.99581128
1.00367509
0.99599936
0.99934745
1.00244678
0.99510936
0.99743719
0.99755419
0.99717134
1.00261340
0.99974135
0.99829536
0.99954971
0.99976719
1.00003048
0.99538416
1.00005402
0.99996134
1.00071510
1.00006918
0.99917893
1.00462435
0.99746328
1.00145277
1.00278951
0.99685982
1.00482670
0.99526517
0.99816952
0.99685995
1.00179437
1.00004141
1.00488481
0.99597602
0.99871227
1.00406928
1.00087938
0.99957579
0.99672568
0.99637413
0.99766621
1.00148081
0.99617390
0.99816601
1.00434939
0.99967968
0.99555475
0.99547127
1.00006455
0.99531439
0.99788417
1.00354541
1.00380191
0.99905078
0.99775357
1.00491276
0.99886451
0.99518335
1.00090321
1.00135342
0.99717662
1.00471904
0.99870620
1.00418326
0.99675283
1.00340793
0.99842101
0.99833341
1.00236525
1.00064098
0.99570917
1.00360708
0.99608584
1.00288252
0.99894413
0.99988269
0.99613209
0.99859856
0.99546547
0.99886675
1.00201181
1.00473526
1.00117137
1.00218255
1.00098037
0.99514743
1.00239097
0.99991224
0.99714229
1.00442419
0.99620730
1.00376679
0.99578366
1.00127278
1.00395258
0.99819313
1.00458243
0.99795649
1.00192647
1.00022795
1.00088451
0.99501241
0.99870034
1.00294542
0.99584511
0.99798942
1.00478848
1.00112884
1.00247732
0.99744235
0.99784349
1.00143890
0.99526836
1.00128871
0.99973555
1.00147977
1.00007154
1.00071597
1.00295500
1.00053250
1.00314964
1.00295788
0.99875843
0.99965329
1.00106243
0.99843111
1.00082031
0.99903752
1.00161479
0.99517239
1.00024914
0.99769717
0.99927271
0.99622818
1.00266139
1.00221427
1.00374120
0.99629209
1.00249618
1.00122803
0.99981004
1.00457228
1.00400167
1.00060276
1.00162603
0.99793020
0.99689009
1.00033778
0.99781158
1.00321281
1.00187263
1.00471645
1.00163760
0.99642105
1.00336824
0.99993195
0.99831421
1.00005326
0.99752625
1.00339032
1.00151119
1.00362463
0.99663637
0.99732827
0.99990882
1.00136882
1.00465700
0.99969116
1.00133586
0.99542226
0.99837708
1.00099160
0.99926258
0.99709747
1.00279957
0.99781731
1.00095707
1.00449968
1.00325681
0.99524253
1.00361216
1.00417444
0.99939921
0.99660055
1.00447844
1.00415549
1.00441141
1.00385096
1.00455154
0.99994257
0.99956619
0.99853784
0.99816642
0.99650981
1.00471481
1.00093948
0.99963713
0.99796593
0.99760501
1.00385709
0.99824162
0.99945132
0.99961034
0.99875394
1.00332066
0.99814456
1.00016485
1.00353476
1.00273769
0.99884127
0.99780934
1.00230340
0.99567233
0.99700745
0.99720376
1.00036120
0.99980764
1.00277798
0.99652477
1.00400613
0.99641747
1.00080557
1.00470266
0.99684920
0.99825741
1.00300621
0.99605807
1.00061548
0.99947003
0.99689873
0.99971267
0.99937825
1.00031700
1.00255779
0.99789261
0.99561258
0.99910228
1.00183101
1.00422181
1.00054378
0.99723957
0.99603470
1.00479142
0.99843054
1.00409479
1.00372219
1.00292999
0.99558415
1.00190714
0.99867189
1.00091784
1.00490275
1.00123738
0.99832359
0.99686873
0.99936009
0.99998101
1.00161516
0.99636734
1.00100463
1.00391600
0.99505587
0.99538692
0.99874211
1.00308588
1.00204043
0.99603786
0.99868093
0.99901190
0.99994755
1.00312272
0.99807023
0.99577533
0.99947179
0.99909602
0.99649909
1.00226778
0.99515162
0.99888172
0.99643321
1.00027423
1.00359958
0.99873034
0.99703206
0.99761736
0.99609355
1.00192327
0.99552930
1.00157992
1.00294783
0.99617687
0.99894756
1.00197112
0.99773470
1.00184155
1.00219044
0.99700357
0.99971107
1.00081226
1.00121116
0.99791607
0.99863931
0.99973803
1.00396379
1.00386617
1.00054341
1.00036862
1.00088927
0.99548596
1.00161241
0.99511967
1.00212155
1.00415985
1.00462296
1.00181026
1.00183503
0.99752679
1.00142911
0.99634044
1.00184711
0.99950126
0.99794677
1.00278261
0.99682307
1.00200437
0.99558423
1.00226650
0.99805622
1.00142928
1.00195641
1.00143999
0.99786165
0.99657808
0.99960591
1.00206979
1.00441890
1.00242900
0.99986298
1.00246633
1.00210239
0.99693477
1.00447857
0.99954438
1.00443151
0.99875313
0.99865390
1.00036579
0.99558590
0.99843359
0.99505179
0.99511062
0.99700345
1.00258659
1.00269463
1.00103152
0.99509989
1.00124799
0.99724900
1.00259569
0.99719463
1.00400235
1.00469711
0.99800576
1.00274014
0.99719354
0.99745716
1.00229303
1.00300081
0.99603648
1.00322684
1.00184278
0.99706923
1.00360956
1.00288469
1.00397255
1.00258216
1.00143968
1.00473079
1.00338785
0.99925814
1.00167467
0.99824727
1.00085971
0.99755310
1.00395049
1.00050774
0.99549552
0.99543695
1.00006507
0.99834090
0.99735526
0.99801978
0.99543290
0.99628536
1.00072201
1.00155192
1.00323952
0.99829275
1.00014563
1.00303055
1.00210136
1.00018817
1.00031683
1.00334158
0.99736514
0.99688138
1.00266323
1.00075368
0.99587546
1.00347370
1.00112889
1.00121515
0.99956074
0.99897009
0.99988717
0.99700900
1.00021916
1.00148387
0.99502884
1.00196479
0.99753331
0.99919494
0.99654832
0.99596312
0.99631314
1.00471990
1.00349030
0.99891594
0.99893512
1.00289601
0.99557632
0.99672492
1.00163622
0.99501040
1.00437025
1.00167394
1.00149533
1.00368478
1.00059688
1.00478189
1.00391345
1.00273369
1.00027987
1.00007316
0.99511127
1.00411375
1.00133013
1.00484045
1.00017689
1.00102003
1.00406401
1.00144910
1.00055669
1.00249902
1.00053121
1.00174944
1.00244612
1.00024677
0.99631623
0.99523724
0.99837465
1.00423678
1.00216132
0.99585226
1.00489935
1.00443595
1.00185091
0.99824298
1.00049530
1.00288682
0.99787898
0.99557519
0.99563831
0.99673469
1.00220811
0.99626991
0.99968104
1.00497754
0.99957538
1.00264337
0.99667753
1.00343080
0.99640127
0.99885593
0.99583410
1.00396729
0.99741467
0.99970006
0.99824586
1.00301500
1.00126801
1.00196529
0.99979391
0.99655940
0.99549728
0.99684587
0.99893005
0.99609724
1.00053964
0.99946811
1.00075361
0.99916544
0.99927351
1.00320383
1.00130403
0.99826276
1.00126837
1.00215451
0.99613219
0.99815234
1.00134733
0.99579873
0.99888519
1.00024542
1.00386585
0.99685319
0.99953767
1.00009251
1.00323549
1.00262410
1.00385035
0.99886989
0.99738524
1.00085017
1.00392139
0.99961497
0.99600214
0.99727790
1.00278158
0.99737144
1.00371478
1.00002858
1.00206382
1.00185394
0.99691625
1.00218541
0.99744141
1.00460670
1.00019319
1.00470193
1.00253968
0.99789664
0.99707531
0.99586223
0.99579080
1.00115616
0.99824841
0.99927193
1.00244527
1.00266747
0.99917919
1.00340570
1.00097316
0.99751923
1.00333310
0.99813991
0.99807374
1.00397236
1.00396170
1.00022817
1.00489230
0.99553511
1.00069553
1.00344756
1.00123154
1.00210472
0.99882921
1.00342308
1.00363934
0.99848081
1.00367332
0.99985892
0.99742749
1.00465164
0.99768272
1.00109972
1.00338384
1.00236339
0.99663344
1.00016483
1.00258116
1.00077841
0.99755955
0.99843591
1.00167858
0.99788139
1.00484815
0.99907910
1.00276126
0.99627627
0.99912374
1.00391486
0.99755095
0.99644720
0.99537871
1.00362404
1.00469853
1.00074938
1.00247384
1.00047685
1.00377036
1.00416243
0.99580813
1.00106779
0.99987566
1.00082812
1.00124195
0.99767661
0.99986627
1.00276728
1.00398783
1.00137068
1.00415793
0.99593352
1.00200897
1.00063814
1.00080019
1.00425124
0.99735337
0.99997934
1.00409373
1.00401866
0.99669864
0.99573599
0.99689312
0.99912857
1.00251600
0.99914405
1.00416916
1.00370410
0.99637645
1.00072219
1.00093569
1.00089901
0.99829847
0.99541819
0.99975311
0.99518226
1.00052301
1.00034826
1.00136439
0.99580893
1.00156364
0.99542077
1.00273412
0.99559758
1.00013194
1.00131052
1.00207883
0.99685406
0.99514356
0.99735658
0.99999876
0.99723391
1.00367174
0.99546979
1.00082171
0.99892177
1.00207401
1.00184400
0.99747524
0.99710771
0.99657106
1.00270439
1.00495480
1.00222035
1.00463121
0.99605460
1.00434120
0.99883741
1.00435534
0.99979425
1.00387215
1.00225246
1.00370379
0.99803695
1.00463122
0.99857778
1.00398833
1.00437082
0.99827957
0.99984886
0.99920146
1.00365584
1.00252704
1.00309352
1.00187855
0.99706168
1.00193231
1.00289848
0.99650073
0.99788595
0.99856531
0.99507405
0.99613851
1.00444547
1.00084488
1.00051174
0.99669433
0.99695444
1.00137773
0.99515330
1.00257335
0.99520908
0.99678926
0.99915087
1.00152078
0.99962277
0.99925592
1.00262096
0.99844428
0.99990827
0.99609486
1.00114346
1.00308400
0.99617048
0.99872106
0.99947113
0.99598829
1.00167748
1.00076658
1.00204193
0.99803171
1.00493486
1.00438350
0.99723788
0.99575184
1.00398428
0.99538075
1.00084762
0.99794572
1.00453269
1.00142732
1.00209699
0.99637764
1.00293588
0.99778572
0.99874069
0.99691777
0.99727401
0.99677831
0.99845566
0.99886101
0.99854607
0.99724426
0.99843522
0.99504985
1.00394057
1.00117587
0.99979871
1.00351975
0.99627573
1.00124673
1.00352504
1.00051475
1.00041563
1.00374209
0.99710919
0.99774719
1.00105427
1.00180145
1.00210593
0.99501656
1.00260613
1.00295218
1.00381603
1.00494163
1.00134322
1.00461455
0.99605814
0.99898101
0.99623437
0.99594361
1.00152056
1.00017310
0.99994621
0.99520648
1.00002210
0.99770566
1.00346027
1.00347602
1.00224368
0.99808630
0.99601865
1.00220625
1.00459111
1.00110540
1.00025986
0.99641604
0.99955618
1.00160730
1.00439746
1.00168636
0.99562040
0.99937022
1.00284808
1.00190545
1.00035004
1.00372528
1.00145657
0.99853751
1.00157399
0.99518701
0.99846198
0.99893055
0.99958125
1.00051987
1.00439394
0.99883468
1.00041968
1.00097359
1.00334022
0.99741763
0.99938054
0.99822983
0.99582702
1.00350549
0.99574910
0.99578771
1.00223099
0.99871648
1.00240828
1.00120150
0.99863207
0.99702869
1.00010806
1.00314947
0.99915270
0.99532553
0.99634973
0.99633126
1.00057858
0.99635082
0.99812507
1.00496827
1.00433275
1.00101670
1.00377873
0.99667453
1.00211964
0.99630306
1.00205592
1.00347318
1.00208416
1.00106061
1.00176701
0.99730370
0.99849027
1.00181217
0.99631104
0.99926727
1.00371587
0.99702711
0.99558031
1.00193599
1.00181707
0.99708878
0.99854476
1.00251480
1.00218102
0.99945484
1.00363446
0.99681872
1.00003226
1.00216670
0.99593202
0.99844713
1.00041285
1.00188675
1.00288009
0.99592391
1.00476613
1.00444005
0.99993750
1.00143579
1.00166376
1.00195216
1.00299171
0.99686435
1.00276904
0.99629517
1.00220174
1.00370604
0.99970980
0.99989758
0.99564491
1.00196670
0.99543949
0.99832018
0.99809314
1.00236765
1.00398609
0.99883858
0.99959755
0.99553368
1.00169281
0.99761512
1.00428206
0.99865688
0.99847573
0.99650139
1.00020525
0.99728374
1.00493802
1.00452599
1.00057473
1.00448976
0.99871827
0.99872322
1.00095717
1.00381217
0.99866721
1.00191391
0.99636309
1.00373877
1.00429883
1.00040609
1.00267803
1.00220704
1.00391509
0.99519691
0.99756950
0.99672883
0.99694728
1.00403689
1.00199813
1.00472053
1.00448936
1.00477126
0.99896772
0.99709521
1.00228831
0.99972386
1.00295622
1.00079014
1.00399978
1.00198568
0.99783432
0.99669517
0.99979436
0.99519823
0.99651386
1.00196466
1.00168580
0.99862297
0.99924189
1.00315538
0.99727679
1.00052402
0.99864643
1.00384231
0.99767339
1.00003210
0.99641600
1.00360792
0.99502082
1.00454438
1.00145961
1.00491164
1.00226815
0.99592839
0.99589486
0.99547071
0.99939255
0.99949966
0.99756812
1.00337081
0.99746209
0.99738319
0.99947818
1.00307990
0.99944111
1.00042965
0.99654150
0.99638413
0.99604206
1.00324958
0.99929872
1.00274692
0.99802721
0.99655010
0.99619415
0.99788720
1.00358629
1.00244728
0.99599565
0.99969775
0.99867532
0.99893649
0.99820501
1.00388365
0.99958455
1.00108372
0.99680837
0.99889192
0.99982073
0.99563269
1.00427597
1.00196748
0.99756748
1.00191517
1.00130817
0.99664892
0.99567529
1.00187587
1.00035699
1.00478702
1.00352485
0.99596196
1.00379574
0.99814904
0.99975671
0.99785678
1.00133552
0.99991849
1.00229612
1.00389272
0.99719022
0.99935552
1.00004547
1.00117672
1.00041896
1.00326281
0.99519548
0.99783441
0.99922589
1.00263053
1.00121707
1.00210812
0.99762166
1.00323901
0.99632835
0.99647915
0.99521119
0.99944000
0.99932069
1.00396017
1.00044155
0.99599467
0.99607766
0.99726961
0.99529279
0.99994580
1.00343536
0.99953130
1.00054070
0.99536188
0.99560724
0.99515399
0.99618040
1.00499769
0.99561982
0.99607635
0.99642039
0.99748197
1.00390754
0.99794943
1.00039236
1.00185649
0.99693167
1.00143517
0.99904182
0.99839317
0.99981633
1.00004623
0.99579923
1.00159351
0.99664899
0.99668832
0.99668035
0.99820695
0.99989026
0.99826648
1.00361087
0.99845646
1.00481423
1.00244293
0.99848818
1.00327048
1.00098503
0.99647886
1.00111669
1.00086640
0.99737186
0.99770543
1.00117173
0.99843464
1.00473102
0.99915093
0.99567266
0.99890804
0.99686810
0.99625041
1.00368823
1.00093047
1.00027251
0.99779361
1.00217497
1.00201579
0.99555934
1.00249626
0.99910508
1.00469860
0.99513559
1.00078606
1.00107180
1.00221120
0.99645785
0.99733750
0.99629993
0.99912086
0.99971095
1.00200009
0.99983993
1.00265531
0.99625290
1.00457837
1.00102246
0.99692469
1.00209518
1.00233180
0.99887207
1.00272605
0.99537043
1.00055122
1.00385491
1.00163122
1.00486585
1.00318181
1.00244997
0.99861494
1.00395086
0.99855649
0.99989989
1.00345932
1.00157664
1.00397534
0.99824691
0.99891095
0.99513983
0.99521254
1.00389979
0.99928055
0.99912605
1.00478013
0.99654757
0.99952222
0.99795212
0.99992567
0.99501968
1.00213748
0.99963095
1.00063074
0.99741935
1.00046921
1.00251447
1.00053420
1.00246944
0.99529971
0.99897784
0.99617762
1.00459474
0.99791974
0.99854444
0.99890344
1.00456877
1.00462855
1.00428196
1.00287143
1.00460923
1.00082468
1.00483821
0.99661742
1.00138775
0.99629030
0.99916768
0.99983900
1.00405444
0.99773080
0.99674672
0.99852712
0.99538077
1.00369829
0.99695287
1.00019176
0.99644339
1.00400362
0.99949182
0.99982900
0.99534298
1.00427580
1.00223080
1.00174287
1.00350785
1.00330076
1.00204968
1.00109243
0.99541095
1.00431397
0.99553334
1.00250779
0.99619545
1.00351381
1.00253101
1.00490991
1.00342374
1.00009617
1.00229928
1.00307627
1.00494753
0.99629228
1.00478917
0.99813625
1.00301928
1.00369942
0.99969345
0.99894771
0.99718611
0.99896061
1.00041369
1.00479783
0.99924675
1.00340833
1.00103747
0.99903820
1.00142764
1.00067108
0.99775441
0.99822997
0.99550348
1.00272382
0.99945387
0.99529899
0.99909275
0.99545724
0.99607944
1.00058178
1.00497206
1.00170193
1.00343345
0.99502325
1.00376283
0.99999718
0.99811858
0.99717897
1.00101732
1.00484998
1.00224593
1.00394752
1.00438869
0.99723476
1.00436556
1.00126626
0.99943121
0.99849415
0.99705091
0.99753434
1.00009616
1.00350282
1.00078089
1.00178346
1.00464176
0.99756713
1.00044420
0.99521713
0.99896055
1.00459922
0.99852637
0.99661968
1.00364912
0.99947545
1.00291785
1.00000646
1.00216541
1.00354688
1.00279175
1.00066606
0.99679297
1.00137614
1.00426078
1.00486023
0.99711890
0.99786400
0.99741814
1.00166592
0.99528667
1.00061881
0.99814792
1.00038230
1.00236338
1.00345616
1.00190592
1.00146362
1.00443146
1.00126589
0.99695523
1.00290259
1.00201180
0.99981454
0.99751431
1.00143536
0.99827802
1.00355420
0.99794687
0.99713197
0.99826612
1.00445236
0.99539973
0.99947192
0.99734342
1.00207729
0.99950211
0.99531484
0.99782672
1.00421502
1.00443037
0.99659485
1.00318298
1.00002978
1.00068287
0.99512322
1.00160293
1.00399363
1.00052116
1.00315325
0.99785584
1.00457465
1.00134066
1.00193467
0.99854051
1.00490428
0.99615253
0.99884226
1.00465239
1.00342598
1.00230511
1.00253386
0.99597314
0.99783915
1.00011813
0.99741797
1.00440519
0.99968132
0.99742507
0.99707839
1.00334443
1.00404023
0.99816946
1.00223485
0.99896342
1.00326805
1.00008713
0.99874217
1.00014310
1.00304667
1.00312900
0.99860303
1.00025355
1.00303388
1.00257981
0.99779944
0.99785819
1.00253967
0.99930421
0.99656522
1.00251394
0.99529529
1.00147345
0.99562568
0.99759648
0.99872757
0.99857946
1.00486559
1.00164074
1.00029383
0.99569815
0.99789750
1.00339978
0.99593245
1.00226776
0.99595832
0.99510961
1.00223418
0.99823236
0.99501555
0.99748580
0.99970005
0.99766301
0.99806575
1.00431913
1.00095599
0.99584600
1.00073399
0.99951448
1.00189854
0.99631568
1.00158224
1.00232200
1.00149108
1.00207599
1.00375398
0.99678318
0.99792655
0.99690609
1.00466450
1.00344281
1.00187132
1.00195575
0.99568006
1.00347524
0.99815565
0.99711158
1.00311049
1.00423944
0.99609557
0.99535999
0.99682499
1.00329332
1.00311164
1.00063570
0.99791345
0.99570978
0.99827887
0.99960843
0.99966733
1.00064259
0.99844626
1.00043999
0.99865498
0.99871153
0.99629542
1.00496018
0.99858945
0.99646188
1.00023903
0.99618247
1.00279207
1.00040464
0.99859451
0.99665244
0.99860771
1.00396460
0.99635153
0.99585796
0.99650380
0.99733546
1.00263990
1.00306480
1.00477604
1.00128352
1.00194585
0.99701443
1.00370910
0.99591327
0.99904141
1.00345013
0.99827739
0.99817334
1.00105908
0.99841779
0.99676387
0.99626503
0.99514005
1.00494674
1.00270357
1.00442791
0.99636831
0.99812650
0.99857064
0.99948487
0.99748737
1.00355322
0.99736421
1.00463720
1.00024896
0.99821961
0.99774943
0.99570350
1.00106121
1.00167919
0.99607739
1.00356498
0.99867535
0.99879924
1.00254947
1.00253325
1.00483251
1.00442331
0.99958165
0.99919376
0.99681750
1.00157526
0.99901131
1.00236622
0.99986970
1.00039867
1.00351694
0.99847238
1.00053092
0.99614646
1.00135566
0.99817735
1.00482794
1.00410418
1.00328418
1.00271076
0.99804172
1.00339772
0.99508525
1.00181915
1.00412109
0.99926534
1.00389727
0.99817430
1.00258701
1.00217712
0.99752274
1.00088269
1.00017752
1.00069410
0.99565787
1.00093166
1.00028098
1.00158386
1.00288630
1.00066669
1.00292590
0.99824043
1.00054758
0.99688027
0.99658829
1.00425163
0.99760864
1.00456975
1.00466564
0.99809756
0.99545363
0.99521338
0.99929074
1.00357801
0.99968036
1.00266094
1.00483665
0.99570259
1.00004411
1.00005071
0.99652162
0.99989702
1.00306800
0.99847716
0.99780962
1.00419638
0.99552235
0.99588286
0.99593804
1.00267131
1.00138701
0.99887270
1.00329504
1.00222807
0.99729771
1.00288210
1.00335239
0.99624480
1.00133260
1.00331337
1.00245958
1.00017268
0.99722552
1.00420328
1.00460459
0.99747513
0.99830174
1.00441499
0.99586212
0.99626291
1.00340207
1.00047939
0.99987576
1.00440226
0.99837096
1.00497805
0.99958741
1.00356549
1.00375129
1.00457532
0.99692984
1.00481304
0.99527421
0.99816399
1.00392783
0.99875709
0.99522917
0.99997239
1.00418488
0.99993270
1.00162762
0.99855172
1.00062295
1.00195834
1.00073135
0.99962801
0.99848569
0.99740948
0.99886015
1.00256550
1.00070547
0.99812821
1.00095258
1.00043718
0.99613053
0.99774125
0.99668233
1.00427553
1.00212491
0.99882082
1.00070415
0.99898547
1.00348097
0.99881211
0.99503847
0.99504685
0.99537198
0.99669651
1.00317597
1.00162499
1.00103229
0.99533232
0.99688480
0.99703495
1.00131270
0.99633282
0.99583835
1.00429084
0.99714803
0.99674556
0.99805009
0.99562591
0.99566553
0.99685126
0.99609535
1.00361926
0.99829907
1.00062837
1.00028283
0.99550270
1.00334944
1.00088252
0.99862279
0.99588459
1.00161515
0.99816370
1.00031619
1.00481533
1.00457943
1.00423740
1.00262220
1.00055528
0.99877119
1.00083271
0.99509580
1.00432470
1.00358735
0.99821668
0.99645980
1.00015091
0.99692527
1.00257522
1.00023623
1.00155322
0.99863237
1.00446969
0.99662392
1.00111910
1.00334870
1.00449894
0.99521268
1.00366831
1.00473791
1.00375276
1.00224844
1.00388492
0.99680437
0.99973507
0.99613955
0.99646345
1.00306291
0.99729404
0.99826033
0.99502781
1.00017448
0.99554792
1.00016600
0.99829931
1.00064123
1.00260328
1.00262257
0.99764698
0.99602954
1.00195570
1.00409434
1.00228973
1.00205055
0.99598514
0.99763539
1.00267665
0.99931037
0.99839755
0.99553622
1.00137677
0.99708569
1.00305122
0.99915481
1.00413908
0.99943306
0.99827195
0.99997261
1.00368454
0.99520493
1.00249895
0.99992059
1.00349189
0.99692693
1.00221292
1.00431215
0.99733239
1.00392042
0.99894662
0.99942877
1.00213432
0.99929190
0.99685142
0.99653503
1.00185874
1.00305855
1.00295305
1.00142246
1.00407290
0.99635467
1.00059012
0.99733113
0.99512573
1.00009635
1.00138647
1.00251281
0.99535236
1.00374074
1.00427211
0.99570219
1.00324021
0.99552335
1.00126573
1.00107143
1.00397174
1.00061740
1.00410427
1.00075884
1.00082639
0.99589989
1.00061926
0.99545746
1.00358019
0.99586076
1.00134167
1.00029641
1.00299565
1.00141142
1.00311583
0.99751765
0.99733392
0.99828234
1.00177720
1.00262064
0.99831421
0.99883508
1.00290518
0.99949159
0.99662739
0.99759926
0.99701130
0.99560725
0.99562269
0.99573329
1.00131232
0.99880403
1.00231725
1.00425076
0.99758928
0.99687222
0.99775682
0.99519212
1.00413031
1.00074954
1.00223756
1.00371535
0.99746378
0.99867004
1.00144689
0.99576800
0.99506436
1.00102504
0.99687396
1.00478532
1.00380892
1.00404489
1.00033712
1.00046006
1.00355711
1.00052560
0.99743693
0.99853751
1.00041000
1.00348336
1.00350370
0.99526492
0.99541870
1.00355932
0.99970227
1.00137804
1.00405460
1.00260835
0.99529210
0.99717805
0.99875589
1.00488098
1.00466792
0.99814437
1.00303783
0.99757397
1.00338628
0.99552888
1.00334652
1.00189566
0.99518143
1.00397908
1.00020169
0.99837266
0.99922090
1.00177036
1.00030375
1.00405384
1.00293231
1.00476361
0.99809470
0.99685477
1.00073060
1.00024967
1.00225819
0.99608036
0.99686404
0.99780881
1.00135694
1.00041047
0.99819013
0.99925380
1.00416252
0.99783435
1.00051710
1.00451309
0.99591486
1.00479395
1.00239913
0.99587895
0.99539096
1.00180484
0.99915500
0.99659170
1.00331370
0.99972499
0.99740342
1.00184636
1.00093985
0.99605407
1.00236934
1.00415113
0.99920319
1.00046682
0.99764501
0.99659200
0.99799021
1.00210485
1.00362772
0.99769372
1.00001026
0.99528016
0.99711712
1.00275429
1.00456718
1.00387316
1.00273470
0.99583610
0.99550002
1.00440117
0.99719723
1.00479730
1.00210304
0.99798705
1.00105102
0.99676817
1.00061107
0.99781793
0.99781123
1.00391307
0.99543025
1.00462242
0.99912578
1.00461203
0.99582890
0.99758905
0.99827525
1.00468714
0.99657117
1.00335704
1.00407104
0.99946433
0.99764476
0.99843809
1.00221272
1.00465808
0.99909088
1.00099851
0.99914834
0.99758742
1.00017309
0.99751386
1.00196618
1.00101405
0.99934908
0.99900712
1.00079407
0.99983005
1.00006796
1.00354858
1.00092476
0.99856102
1.00349815
0.99846566
0.99828317
1.00345145
0.99715071
1.00160349
0.99745515
0.99529175
0.99772163
1.00441041
0.99944123
0.99667043
1.00490407
0.99506885
0.99976713
1.00249737
1.00351085
0.99906771
0.99609615
1.00065884
1.00327725
0.99756422
1.00321661
1.00295472
1.00243692
1.00031401
1.00352934
0.99564817
1.00248318
0.99828095
0.99755393
0.99829660
0.99734086
1.00071370
1.00466187
1.00221933
0.99702475
1.00378330
0.99776918
0.99767875
1.00402854
0.99704692
1.00011463
0.99602178
0.99618460
1.00294669
1.00081244
0.99851302
1.00486082
0.99582978
0.99739790
0.99840411
0.99751686
0.99694845
0.99746207
1.00413099
0.99569337
1.00271761
1.00075052
0.99793333
1.00310725
0.99857903
1.00090771
1.00173881
1.00248467
1.00000138
1.00201484
1.00112249
1.00141671
0.99602388
1.00394270
0.99758866
0.99888243
0.99615634
1.00389189
1.00265848
1.00357650
0.99670860
1.00279743
0.99888170
1.00279428
0.99535712
1.00358685
1.00434983
0.99649779
0.99879788
0.99749367
1.00194458
0.99596181
0.99909066
0.99920427
1.00228999
1.00474981
0.99969863
0.99548427
1.00201870
0.99587863
0.99996507
0.99785537
0.99529587
1.00050793
0.99636184
1.00200784
1.00175383
0.99764954
1.00222255
0.99518426
1.00216776
1.00309621
1.00295890
0.99553789
0.99529867
0.99691508
0.99603850
0.99763443
0.99639495
1.00319169
1.00312446
1.00118394
1.00493737
0.99755343
0.99889499
0.99611626
0.99696126
0.99566803
1.00434191
0.99741085
1.00367968
1.00285470
1.00076122
1.00054082
1.00417076
0.99678117
1.00076335
0.99763164
0.99510647
1.00026417
1.00382679
1.00337142
0.99960295
0.99826339
1.00369739
0.99832661
0.99612692
1.00432901
0.99520451
0.99647502
1.00053469
1.00073708
1.00160951
1.00216676
0.99969599
1.00306642
1.00437148
1.00227418
1.00035001
1.00353637
1.00234333
1.00477329
1.00077356
1.00415035
0.99540560
0.99575325
1.00192587
0.99675475
0.99899573
1.00172227
1.00497488
1.00477216
1.00397505
1.00022491
1.00151747
1.00055350
1.00134096
0.99557651
1.00492504
0.99787444
1.00249029
0.99997908
0.99698400
1.00005496
1.00276509
0.99932965
0.99984680
1.00289231
0.99596746
0.99683930
0.99510759
0.99557079
1.00458078
0.99712180
0.99834861
1.00033945
0.99870104
0.99779757
1.00129122
1.00498370
0.99897964
1.00307765
0.99949088
1.00126638
1.00261256
0.99652976
0.99602536
1.00320961
1.00397757
1.00265133
0.99857242
0.99949744
0.99562572
0.99756004
0.99964370
1.00121977
1.00397709
1.00309852
0.99965183
1.00488651
1.00284818
1.00173628
1.00194857
1.00496851
0.99614338
0.99534788
1.00401096
0.99884213
1.00244189
1.00288600
0.99685445
0.99992991
1.00419540
1.00017217
0.99671520
1.00463596
1.00397370
0.99961232
0.99712990
0.99698185
1.00125163
1.00207123
0.99870660
0.99753713
0.99754520
0.99870512
0.99872042
1.00093511
1.00323138
0.99578358
1.00014817
1.00154014
1.00247027
0.99501645
1.00313062
1.00036805
1.00398914
1.00453420
0.99870266
1.00047902
1.00028973
0.99678529
0.99514896
1.00257083
0.99936200
0.99775303
0.99923076
1.00067945
1.00418499
0.99894442
1.00491566
1.00384042
0.99989638
1.00168512
1.00440412
0.99913104
0.99808057
0.99640050
1.00403299
0.99911925
1.00365200
1.00273556
1.00228355
0.99948149
0.99938279
0.99537780
0.99526037
0.99838186
1.00178164
0.99947596
1.00072091
0.99678780
1.00429214
0.99870575
1.00154409
0.99769053
1.00179521
0.99925452
1.00036844
0.99882724
0.99995120
0.99975326
1.00369644
0.99666943
0.99661525
1.00062458
1.00316346
0.99605079
0.99503765
1.00176656
0.99886919
1.00138266
1.00202884
1.00223214
1.00262958
0.99605731
1.00482233
1.00039608
1.00451456
0.99709036
0.99986430
1.00112163
0.99551669
1.00469664
0.99671955
0.99839039
0.99756599
1.00472409
0.99515933
0.99649518
0.99854225
1.00228331
1.00492271
0.99789549
0.99952780
1.00196346
1.00422302
1.00359790
0.99797336
1.00444684
1.00200781
0.99568073
1.00263977
0.99525307
0.99543498
0.99811686
0.99549405
1.00189402
1.00211155
1.00121640
0.99544831
1.00278969
0.99669885
1.00215455
0.99616008
0.99788114
0.99820599
1.00203809
1.00059766
0.99822919
1.00438049
0.99993647
1.00341490
1.00208612
0.99656533
1.00318444
1.00115574
1.00116109
0.99724797
1.00301006
1.00170348
1.00000826
0.99546799
1.00450308
0.99600586
1.00083238
1.00285641
1.00039243
1.00017936
1.00287136
0.99536938
0.99586201
1.00251633
0.99547208
0.99699666
0.99747139
0.99699236
1.00270979
1.00286335
0.99626279
0.99856863
0.99661289
1.00150048
1.00379055
0.99606771
1.00083789
0.99841735
0.99641772
1.00034545
0.99810242
0.99583665
1.00176778
0.99705645
1.00448730
1.00068650
0.99942015
1.00121237
0.99580818
1.00489959
0.99797530
0.99794433
0.99893599
0.99854106
1.00032127
1.00149217
1.00386025
0.99637918
1.00474560
1.00382015
1.00030281
0.99593731
1.00031225
0.99627091
0.99731328
1.00179828
1.00347857
0.99726631
0.99553114
0.99553401
1.00157349
1.00269836
1.00345578
0.99506730
1.00361984
0.99647583
0.99852417
0.99858772
1.00013167
1.00265145
0.99745348
0.99671009
1.00225206
1.00477812
0.99946341
0.99721625
1.00364525
1.00181941
0.99996473
0.99795069
1.00254317
0.99516541
0.99782690
1.00003592
0.99685560
0.99657776
0.99986261
1.00019754
1.00319446
1.00248770
1.00194339
1.00043825
0.99671372
0.99721144
1.00403470
1.00393141
0.99651033
0.99508464
0.99875605
0.99688139
1.00471439
0.99643810
1.00388951
1.00386980
0.99618794
0.99958332
1.00069222
0.99526924
1.00072834
0.99911287
0.99554532
1.00104614
0.99905660
1.00160216
1.00392733
1.00298465
0.99584608
1.00219929
1.00414675
0.99905811
1.00261447
1.00254119
0.99761784
0.99855572
0.99671906
0.99556448
1.00312839
0.99827175
0.99837772
1.00107315
0.99678429
1.00292043
0.99594975
0.99698445
0.99899407
1.00491066
0.99650503
1.00215200
1.00080055
0.99703615
0.99958250
1.00391041
1.00099985
0.99869084
0.99611801
1.00296455
0.99952768
0.99874111
0.99538532
0.99636438
0.99781632
0.99554896
0.99921880
0.99530584
0.99515812
0.99925565
0.99756282
1.00136785
0.99641824
1.00063727
0.99914257
0.99887601
1.00468311
0.99688900
0.99837765
1.00314643
1.00115924
0.99750824
1.00399255
0.99922771
0.99624496
1.00087702
1.00383464
0.99659995
1.00092657
1.00163046
0.99766530
0.99914472
0.99760315
0.99880162
1.00386436
0.99595787
0.99541535
0.99636427
0.99753556
0.99777028
1.00020458
1.00236637
0.99939231
1.00477660
1.00322055
0.99741176
1.00223398
0.99562912
0.99684768
0.99943498
1.00497427
1.00092589
1.00335703
1.00463851
0.99713720
0.99724030
0.99513585
0.99586917
1.00416266
1.00388768
0.99502761
1.00172968
0.99999572
0.99840542
1.00292295
0.99722390
1.00158702
0.99703739
1.00167156
1.00277874
0.99986994
0.99565133
0.99685094
0.99961688
0.99960965
0.99682330
1.00349143
1.00458829
1.00148469
0.99748604
0.99588848
1.00277805
0.99630446
1.00017169
1.00040227
0.99592088
0.99697890
0.99600497
0.99554790
1.00135042
1.00456789
1.00399556
1.00247612
1.00239011
0.99828343
0.99659089
1.00184062
0.99825490
1.00232082
0.99959664
1.00340352
0.99542546
1.00043136
0.99803835
1.00308855
0.99762147
1.00098565
1.00444894
0.99807418
0.99597355
1.00275328
1.00254055
0.99808126
0.99569392
1.00308600
1.00046580
1.00094357
1.00442612
1.00477000
1.00400036
1.00472790
0.99625936
1.00355253
1.00272124
0.99671769
1.00491092
1.00168997
0.99718341
1.00430120
1.00477743
1.00284679
1.00497241
1.00255589
0.99794849
1.00153623
0.99695482
1.00073878
1.00286067
1.00243093
0.99502469
1.00357676
1.00080627
0.99528039
0.99614992
1.00225579
0.99826481
1.00204757
1.00111128
0.99740681
0.99822291
0.99630330
1.00454569
0.99795048
0.99570832
0.99638560
1.00478069
1.00322562
0.99500349
1.00384670
0.99853379
1.00055593
1.00392074
1.00369623
1.00354124
0.99911944
0.99876907
1.00031882
1.00036847
0.99845346
0.99907879
0.99967865
1.00178737
1.00076451
0.99646379
1.00004481
1.00150053
0.99864502
1.00362622
1.00075587
0.99519083
1.00310559
1.00481280
0.99525113
1.00026276
0.99670184
1.00312029
0.99537434
1.00206568
0.99876005
0.99586727
1.00452427
1.00413161
0.99831074
1.00485160
1.00292600
0.99881410
0.99945138